 &FCI NORB=  32,NELEC=32,MS2=0,
  ORBSYM=1,1,1,1,1,1,1,1,1,1,1,1,1,1,1,1,1,1,1,1,1,1,1,1,1,1,1,1,1,1,1,1,
  ISYM=1,
 &END
 9.624352771575175e-07    9    9    9    9
 3.500456618990248e-12   10    9    9    9
 5.389278237597677e-09   10    9   10    9
 5.389278237597676e-09   10   10    9    9
 2.659563784310683e-13   10   10   10    9
 6.031983339949438e-11   10   10   10   10
 -1.988295186270298e-11   11    9    9    9
 -4.230842523681807e-14   11    9   10    9
 -1.36391324790334e-13   11    9   10   10
 5.388683128917017e-09   11    9   11    9
 -4.230842523681807e-14   11   10    9    9
 -1.363913247903326e-13   11   10   10    9
 -1.047069842313741e-12   11   10   10   10
 8.856149549821214e-15   11   10   11    9
 3.635973375037304e-14   11   10   11   10
 5.388683128917016e-09   11   11    9    9
 8.856149549821214e-15   11   11   10    9
 3.635973375037304e-14   11   11   10   10
 -3.194502416650529e-13   11   11   11    9
 1.046463926564467e-12   11   11   11   10
 6.030592319534404e-11   11   11   11   11
 -1.082389572725381e-11   12    9    9    9
 1.94009071994593e-12   12    9   10    9
 2.813858670483689e-09   12    9   10   10
 -1.638076038988442e-12   12    9   11    9
 -9.77273996376692e-11   12    9   11   10
 -2.813641643478668e-09   12    9   11   11
 2.626957006622573e-07   12    9   12    9
 1.94009071994593e-12   12   10    9    9
 2.813858670483689e-09   12   10   10    9
 1.486534168383713e-13   12   10   10   10
 -9.77273996376692e-11   12   10   11    9
 -7.167583539943535e-14   12   10   11   10
 1.855614480630339e-12   12   10   12    9
 1.470947994079105e-09   12   10   12   10
 -1.638076038985805e-12   12   11    9    9
 -9.77273996376692e-11   12   11   10    9
 -7.167583539943534e-14   12   11   10   10
 -2.813641643478669e-09   12   11   11    9
 1.708018295266415e-13   12   11   11   11
 -5.818905802172763e-12   12   11   12    9
 -9.838506141383007e-15   12   11   12   10
 1.470885320338897e-09   12   11   12   11
 2.626957006622573e-07   12   12    9    9
 1.855614480629532e-12   12   12   10    9
 1.470947994079105e-09   12   12   10   10
 -5.818905802173591e-12   12   12   11    9
 -9.838506141384623e-15   12   12   11   10
 1.470885320338897e-09   12   12   11   11
 -7.612204114859389e-12   12   12   12    9
 1.006633935901692e-12   12   12   12   10
 -2.587071972535425e-13   12   12   12   11
 7.170251655974294e-08   12   12   12   12
 -1.545889364095106e-11   13    9    9    9
 2.630521606477401e-11   13    9   10    9
 3.699777716242157e-08   13    9   10   10
 -2.293315844628762e-11   13    9   11    9
 -1.28493561067644e-09   13    9   11   10
 -3.699350295369131e-08   13    9   11   11
 3.453965360533064e-06   13    9   12    9
 2.483910454619247e-11   13    9   12   10
 -7.579530441616563e-11   13    9   12   11
 -6.546119417799955e-11   13    9   12   12
 4.54132925898858e-05   13    9   13    9
 2.630521606479511e-11   13   10    9    9
 3.699777716242157e-08   13   10   10    9
 1.963735358282407e-12   13   10   10   10
 -1.28493561067644e-09   13   10   11    9
 -9.425874728314474e-13   13   10   11   10
 3.944737889154668e-15   13   10   11   11
 2.483910454623167e-11   13   10   12    9
 1.934063192982433e-08   13   10   12   10
 -1.422494863458798e-13   13   10   12   11
 1.345292454276762e-11   13   10   12   12
 3.323895480516368e-10   13   10   13    9
 2.542986189537889e-07   13   10   13   10
 -2.293315844630872e-11   13   11    9    9
 -1.28493561067644e-09   13   11   10    9
 -9.425874728314474e-13   13   11   10   10
 -3.699350295369131e-08   13   11   11    9
 3.944737889152384e-15   13   11   11   10
 2.230254811723308e-12   13   11   11   11
 -7.579530441615404e-11   13   11   12    9
 -1.422494863458829e-13   13   11   12   10
 1.933906609156992e-08   13   11   12   11
 -3.782480516642586e-12   13   11   12   12
 -9.871997757678254e-10   13   11   13    9
 -2.039814993879704e-12   13   11   13   10
 2.542682778382168e-07   13   11   13   11
 3.453965360533064e-06   13   12    9    9
 2.483910454621876e-11   13   12   10    9
 1.934063192982434e-08   13   12   10   10
 -7.579530441616727e-11   13   12   11    9
 -1.422494863459087e-13   13   12   11   10
 1.933906609156992e-08   13   12   11   11
 -6.5461194177965e-11   13   12   12    9
 1.34529245427617e-11   13   12   12   10
 -3.782480516634879e-12   13   12   12   11
 9.427562296623204e-07   13   12   12   12
 -4.054355388436259e-10   13   12   13    9
 1.797415782517867e-10   13   12   13   10
 -5.474135408972988e-11   13   12   13   11
 1.239551066751135e-05   13   12   13   12
 4.54132925898858e-05   13   13    9    9
 3.323895480512563e-10   13   13   10    9
 2.54298618953789e-07   13   13   10   10
 -9.871997757682059e-10   13   13   11    9
 -2.039814993879395e-12   13   13   11   10
 2.542682778382168e-07   13   13   11   11
 -4.05435538844473e-10   13   13   12    9
 1.797415782517156e-10   13   13   12   10
 -5.474135408983576e-11   13   13   12   11
 1.239551066751135e-05   13   13   12   12
 6.550824341845829e-10   13   13   13    9
 2.400881217565901e-09   13   13   13   10
 -7.856007458248928e-10   13   13   13   11
 0.0001629781696819014   13   13   13   12
 0.002142863211964351   13   13   13   13
 3.783415372904063e-05   14    9    9    9
 2.128183770264362e-10   14    9   10    9
 2.118573749216907e-07   14    9   10   10
 -8.033934288216764e-10   14    9   11    9
 -1.673297120418907e-12   14    9   11   10
 2.118335069519858e-07   14    9   11   11
 -4.034814027688676e-10   14    9   12    9
 1.159315822474073e-10   14    9   12   10
 -5.43879778325576e-11   14    9   12   11
 1.032679263940469e-05   14    9   12   12
 -3.182262757435079e-10   14    9   13    9
 1.555611728996345e-09   14    9   13   10
 -7.699618568566106e-10   14    9   13   11
 0.0001357783320153831   14    9   13   12
 0.001785235367418402   14    9   13   13
 0.001487292936432031   14    9   14    9
 2.128183770264362e-10   14   10    9    9
 2.118573749216907e-07   14   10   10    9
 1.130103264411302e-11   14   10   10   10
 -1.673297120418336e-12   14   10   11    9
 -5.376425301034311e-12   14   10   11   10
 3.444212763803128e-13   14   10   11   11
 1.159315822474204e-10   14   10   12    9
 1.10615315556706e-07   14   10   12   10
 -3.841748636410477e-09   14   10   12   11
 9.347428418934073e-11   14   10   12   12
 1.555611728996147e-09   14   10   13    9
 1.454415901910482e-06   14   10   13   10
 -5.051193062276236e-08   14   10   13   11
 1.24636360663683e-09   14   10   13   12
 1.661550070805532e-08   14   10   13   13
 1.132274416645966e-08   14   10   14    9
 8.32830397576054e-06   14   10   14   10
 -8.033934288216335e-10   14   11    9    9
 -1.673297120418336e-12   14   11   10    9
 -5.376425301034311e-12   14   11   10   10
 2.118335069519858e-07   14   11   11    9
 3.444212763803118e-13   14   11   11   10
 -1.278695312435447e-11   14   11   11   11
 -5.438797783244847e-11   14   11   12    9
 -3.841748636410477e-09   14   11   12   10
 -1.106065361983562e-07   14   11   12   11
 -2.346904949901213e-10   14   11   12   12
 -7.69961856856977e-10   14   11   13    9
 -5.051193062276236e-08   14   11   13   10
 -1.454244620266356e-06   14   11   13   11
 -3.057733978381796e-09   14   11   13   12
 -3.983525479159841e-08   14   11   13   13
 -3.24381766742535e-08   14   11   14    9
 -6.617662970305062e-11   14   11   14   10
 8.327347071399398e-06   14   11   14   11
 -4.034814027680206e-10   14   12    9    9
 1.159315822475048e-10   14   12   10    9
 1.10615315556706e-07   14   12   10   10
 -5.438797783244847e-11   14   12   11    9
 -3.841748636410477e-09   14   12   11   10
 -1.106065361983562e-07   14   12   11   11
 1.032679263940469e-05   14   12   12    9
 9.347428418936867e-11   14   12   12   10
 -2.346904949901271e-10   14   12   12   11
 -2.932273314529343e-10   14   12   12   12
 0.0001357783320153831   14   12   13    9
 1.246363606636995e-09   14   12   13   10
 -3.057733978381925e-09   14   12   13   11
 -2.494245791864425e-09   14   12   13   12
 -1.489807315397242e-08   14   12   13   13
 -1.49952497465e-08   14   12   14    9
 6.116636473790981e-09   14   12   14   10
 -1.744686961332569e-09   14   12   14   11
 0.0004059550500069834   14   12   14   12
 -3.182262757543104e-10   14   13    9    9
 1.555611728994797e-09   14   13   10    9
 1.454415901910481e-06   14   13   10   10
 -7.69961856856977e-10   14   13   11    9
 -5.051193062276236e-08   14   13   11   10
 -1.454244620266356e-06   14   13   11   11
 0.0001357783320153831   14   13   12    9
 1.246363606636995e-09   14   13   12   10
 -3.057733978381925e-09   14   13   12   11
 -2.494245791864425e-09   14   13   12   12
 0.001785235367418403   14   13   13    9
 1.661550070805401e-08   14   13   13   10
 -3.983525479159765e-08   14   13   13   11
 -1.489807315398736e-08   14   13   13   12
 3.942599945408055e-08   14   13   13   13
 -1.123449132307611e-09   14   13   14    9
 8.165430991256128e-08   14   13   14   10
 -2.509612782477647e-08   14   13   14   11
 0.005337562347805068   14   13   14   12
 0.0701791290119569   14   13   14   13
 0.001487292936432031   14   14    9    9
 1.132274416645966e-08   14   14   10    9
 8.32830397576054e-06   14   14   10   10
 -3.24381766742535e-08   14   14   11    9
 -6.617662970303738e-11   14   14   11   10
 8.327347071399398e-06   14   14   11   11
 -1.49952497465e-08   14   14   12    9
 6.116636473788705e-09   14   14   12   10
 -1.744686961329181e-09   14   14   12   11
 0.0004059550500069834   14   14   12   12
 -1.12344913187393e-09   14   14   13    9
 8.165430991250707e-08   14   14   13   10
 -2.509612782477647e-08   14   14   13   11
 0.005337562347805068   14   14   13   12
 0.0701791290119569   14   14   13   13
 0.05846675721353547   14   14   14    9
 5.613363143697216e-07   14   14   14   10
 -1.308826185600452e-06   14   14   14   11
 -5.554147146453772e-07   14   14   14   12
 4.037065813634553e-07   14   14   14   13
 2.298378226609531   14   14   14   14
 4.855664661421731e-10   15    9    9    9
 7.578821103256208e-08   15    9   10    9
 1.191106558947338e-12   15    9   10   10
 1.870938111145501e-06   15    9   11    9
 1.027399626689039e-12   15    9   11   10
 -7.339843439111684e-11   15    9   11   11
 -1.955747458218178e-10   15    9   12    9
 5.647598011974587e-09   15    9   12   10
 -9.782647579962869e-07   15    9   12   11
 9.131935359503674e-12   15    9   12   12
 -3.043780818370736e-09   15    9   13    9
 7.426551667573664e-08   15    9   13   10
 -1.286213590956821e-05   15    9   13   11
 3.737344171518041e-10   15    9   13   12
 8.24904059439078e-09   15    9   13   13
 1.258483143051283e-08   15    9   14    9
 2.97929985756825e-06   15    9   14   10
 7.35480952027738e-05   15    9   14   11
 -3.656007573917705e-09   15    9   14   12
 -6.663840952165999e-08   15    9   14   13
 2.39074745936172e-07   15    9   14   14
 0.0006506515750020095   15    9   15    9
 7.578821103256208e-08   15   10    9    9
 1.191106558946802e-12   15   10   10    9
 4.848902631790132e-10   15   10   10   10
 1.027399626689317e-12   15   10   11    9
 -2.104672035533481e-12   15   10   11   10
 3.638414456729013e-10   15   10   11   11
 5.647598011974584e-09   15   10   12    9
 6.012182978049696e-13   15   10   12   10
 -1.642314610556316e-12   15   10   12   11
 2.068621260898911e-08   15   10   12   12
 7.426551667573663e-08   15   10   13    9
 7.977245252338876e-12   15   10   13   10
 -2.168763658262046e-11   15   10   13   11
 2.719863983357789e-07   15   10   13   12
 3.576130744925583e-06   15   10   13   13
 2.97929985756825e-06   15   10   14    9
 5.359904155336926e-11   15   10   14   10
 3.888808374368942e-11   15   10   14   11
 2.220136523721439e-07   15   10   14   12
 2.919463913381971e-06   15   10   14   13
 0.0001171188437886375   15   10   14   14
 9.588731352107578e-10   15   10   15    9
 6.089494429543918e-09   15   10   15   10
 1.870938111145501e-06   15   11    9    9
 1.02739962668911e-12   15   11   10    9
 -2.104672035533482e-12   15   11   10   10
 -7.339843439111418e-11   15   11   11    9
 3.638414456729012e-10   15   11   11   10
 2.09527999308248e-08   15   11   11   11
 -9.782647579962869e-07   15   11   12    9
 -1.642314610556115e-12   15   11   12   10
 3.978638218553248e-11   15   11   12   11
 5.106879458216032e-07   15   11   12   12
 -1.286213590956821e-05   15   11   13    9
 -2.168763658262086e-11   15   11   13   10
 5.177460398893989e-10   15   11   13   11
 6.714478375935554e-06   15   11   13   12
 8.828134721106012e-05   15   11   13   13
 7.35480952027738e-05   15   11   14    9
 3.888808374367142e-11   15   11   14   10
 -2.964949067774911e-09   15   11   14   11
 -3.845638147733324e-05   15   11   14   12
 -0.0005056209999273543   15   11   14   13
 0.002891235298642249   15   11   14   14
 -1.248961641138462e-08   15   11   15    9
 1.262953473630337e-07   15   11   15   10
 7.279882881419045e-06   15   11   15   11
 -1.955747458218178e-10   15   12    9    9
 5.647598011974583e-09   15   12   10    9
 6.01218297804972e-13   15   12   10   10
 -9.782647579962869e-07   15   12   11    9
 -1.642314610556115e-12   15   12   11   10
 3.978638218553248e-11   15   12   11   11
 9.131935359715538e-12   15   12   12    9
 2.068621260898911e-08   15   12   12   10
 5.106879458216032e-07   15   12   12   11
 1.870647098553947e-11   15   12   12   12
 3.737344171520071e-10   15   12   13    9
 2.719863983357789e-07   15   12   13   10
 6.714478375935554e-06   15   12   13   11
 1.170122464000165e-10   15   12   13   12
 -1.568064533653593e-10   15   12   13   13
 -3.656007573915127e-09   15   12   14    9
 2.220136523721439e-07   15   12   14   10
 -3.845638147733324e-05   15   12   14   11
 -1.416123324854777e-09   15   12   14   12
 -8.647059139300517e-09   15   12   14   13
 1.478826360429943e-08   15   12   14   14
 -0.000339571924800452   15   12   15    9
 -4.91439609244205e-10   15   12   15   10
 7.002812201886949e-09   15   12   15   11
 0.0001776006868376191   15   12   15   12
 -3.043780818370736e-09   15   13    9    9
 7.426551667573663e-08   15   13   10    9
 7.977245252338876e-12   15   13   10   10
 -1.286213590956821e-05   15   13   11    9
 -2.168763658262086e-11   15   13   11   10
 5.177460398893989e-10   15   13   11   11
 3.737344171520071e-10   15   13   12    9
 2.719863983357789e-07   15   13   12   10
 6.714478375935555e-06   15   13   12   11
 1.170122463966284e-10   15   13   12   12
 8.249040594304401e-09   15   13   13    9
 3.576130744925583e-06   15   13   13   10
 8.828134721106012e-05   15   13   13   11
 -1.568064533471576e-10   15   13   13   12
 -2.435094488590107e-08   15   13   13   13
 -6.663840952172476e-08   15   13   14    9
 2.919463913381971e-06   15   13   14   10
 -0.0005056209999273543   15   13   14   11
 -8.647059139248968e-09   15   13   14   12
 1.742035163143849e-08   15   13   14   13
 -5.355432468296966e-07   15   13   14   14
 -0.004464660572017356   15   13   15    9
 -6.493145448003202e-09   15   13   15   10
 9.020943919026147e-08   15   13   15   11
 0.002335077663080973   15   13   15   12
 0.03070138854639671   15   13   15   13
 1.258483143056704e-08   15   14    9    9
 2.97929985756825e-06   15   14   10    9
 5.359904155339573e-11   15   14   10   10
 7.35480952027738e-05   15   14   11    9
 3.888808374368465e-11   15   14   11   10
 -2.964949067774064e-09   15   14   11   11
 -3.656007573915127e-09   15   14   12    9
 2.220136523721438e-07   15   14   12   10
 -3.845638147733324e-05   15   14   12   11
 -1.416123324841225e-09   15   14   12   12
 -6.663840952172476e-08   15   14   13    9
 2.91946391338197e-06   15   14   13   10
 -0.0005056209999273543   15   14   13   11
 -8.647059139248968e-09   15   14   13   12
 1.742035163143849e-08   15   14   13   13
 2.390747459367812e-07   15   14   14    9
 0.0001171188437886375   15   14   14   10
 0.00289123529864225   15   14   14   11
 1.478826360391878e-08   15   14   14   12
 -5.355432468332965e-07   15   14   14   13
 -6.513933529024811e-07   15   14   14   14
 0.02557764135213642   15   14   15    9
 3.726867834317368e-08   15   14   15   10
 -5.186339732085956e-07   15   14   15   11
 -0.01334884786268569   15   14   15   12
 -0.1755094293116393   15   14   15   13
 1.005477835361206   15   14   15   14
 0.0006506515750020095   15   15    9    9
 9.588731352106519e-10   15   15   10    9
 6.089494429543918e-09   15   15   10   10
 -1.248961641138462e-08   15   15   11    9
 1.262953473630337e-07   15   15   11   10
 7.279882881419045e-06   15   15   11   11
 -0.000339571924800452   15   15   12    9
 -4.91439609244205e-10   15   15   12   10
 7.002812201886949e-09   15   15   12   11
 0.0001776006868376191   15   15   12   12
 -0.004464660572017356   15   15   13    9
 -6.493145448003202e-09   15   15   13   10
 9.020943919026147e-08   15   15   13   11
 0.002335077663080973   15   15   13   12
 0.03070138854639671   15   15   13   13
 0.02557764135213643   15   15   14    9
 3.726867834317368e-08   15   15   14   10
 -5.186339732085956e-07   15   15   14   11
 -0.01334884786268569   15   15   14   12
 -0.1755094293116393   15   15   14   13
 1.005477835361206   15   15   14   14
 1.918793898162455e-07   15   15   15    9
 4.39351236033554e-05   15   15   15   10
 0.002529335550524815   15   15   15   11
 6.871737521324431e-08   15   15   15   12
 2.562506025164699e-07   15   15   15   13
 -2.065504413933541e-06   15   15   15   14
 0.8787976779016596   15   15   15   15
 2.005502033790685e-09   16    9    9    9
 -1.871037977358351e-06   16    9   10    9
 -5.917263921914347e-11   16    9   10   10
 7.579865873444574e-08   16    9   11    9
 4.693885221297454e-11   16    9   11   10
 -3.445257075942623e-12   16    9   11   11
 7.483903645335548e-10   16    9   12    9
 -9.782834542418746e-07   16    9   12   10
 -5.641070024673182e-09   16    9   12   11
 2.293444377552376e-10   16    9   12   12
 9.544234439962852e-09   16    9   13    9
 -1.286287496638629e-05   16    9   13   10
 -7.415969863691605e-08   16    9   13   11
 2.872499645527277e-09   16    9   13   12
 3.588837572739606e-08   16    9   13   13
 5.241976818211269e-08   16    9   14    9
 -7.355218545092778e-05   16    9   14   10
 2.979710277588725e-06   16    9   14   11
 1.578987807199196e-08   16    9   14   12
 1.959792582687954e-07   16    9   14   13
 1.022140343002422e-06   16    9   14   14
 6.581418598034755e-11   16    9   15    9
 -9.236194390674773e-11   16    9   15   10
 3.465447312132886e-11   16    9   15   11
 -1.571860297696341e-05   16    9   15   12
 -0.000206670722347023   16    9   15   13
 1.270502799841219e-09   16    9   15   14
 -9.967196686397054e-09   16    9   15   15
 0.0006506487351316685   16    9   16    9
 -1.871037977358351e-06   16   10    9    9
 -5.917263921916533e-11   16   10   10    9
 -2.095642680863442e-08   16   10   10   10
 4.693885221297455e-11   16   10   11    9
 3.640297919078293e-10   16   10   11   10
 2.093748924000811e-12   16   10   11   11
 -9.782834542418744e-07   16   10   12    9
 -3.429158995869453e-11   16   10   12   10
 2.453325798844364e-11   16   10   12   11
 -5.106805173115129e-07   16   10   12   12
 -1.286287496638629e-05   16   10   13    9
 -4.540689766347654e-10   16   10   13   10
 3.226266462690916e-10   16   10   13   11
 -6.714638601311061e-06   16   10   13   12
 -8.82868447455083e-05   16   10   13   13
 -7.355218545092778e-05   16   10   14    9
 -2.620066336560656e-09   16   10   14   10
 1.850280358274942e-09   16   10   14   11
 -3.845720230143423e-05   16   10   14   12
 -0.0005056511818320435   16   10   14   13
 -0.00289140255718345   16   10   14   14
 -9.236194390688868e-11   16   10   15    9
 -1.683726942843874e-07   16   10   15   10
 5.847594825425083e-09   16   10   15   11
 -9.749587769639152e-11   16   10   15   12
 -1.308287596839726e-09   16   10   15   13
 -6.004255086682158e-09   16   10   15   14
 -3.379742950258776e-07   16   10   15   15
 9.017117657670544e-09   16   10   16    9
 7.280723919380804e-06   16   10   16   10
 7.579865873444574e-08   16   11    9    9
 4.693885221297489e-11   16   11   10    9
 3.640297919078294e-10   16   11   10   10
 -3.445257075942919e-12   16   11   11    9
 2.093748924000811e-12   16   11   11   10
 4.848065821742287e-10   16   11   11   11
 -5.641070024673183e-09   16   11   12    9
 2.453325798844368e-11   16   11   12   10
 1.484441861892851e-13   16   11   12   11
 2.068927244238955e-08   16   11   12   12
 -7.415969863691605e-08   16   11   13    9
 3.226266462690947e-10   16   11   13   10
 1.826312497120802e-12   16   11   13   11
 2.720251447344627e-07   16   11   13   12
 3.57662066664861e-06   16   11   13   13
 2.979710277588725e-06   16   11   14    9
 1.850280358274946e-09   16   11   14   10
 -1.373659797034786e-10   16   11   14   11
 -2.217532126372762e-07   16   11   14   12
 -2.915253900608393e-06   16   11   14   13
 0.0001171349664041586   16   11   14   14
 3.465447312132679e-11   16   11   15    9
 5.847594825425083e-09   16   11   15   10
 1.683531962459053e-07   16   11   15   11
 3.808390062010608e-10   16   11   15   12
 4.964685725196719e-09   16   11   15   13
 7.635845238615453e-10   16   11   15   14
 5.853410734608628e-05   16   11   15   15
 -1.609992020599736e-08   16   11   16    9
 -1.263532869884869e-07   16   11   16   10
 6.091190207664482e-09   16   11   16   11
 7.483903645327289e-10   16   12    9    9
 -9.782834542418744e-07   16   12   10    9
 -3.429158995869453e-11   16   12   10   10
 -5.641070024673185e-09   16   12   11    9
 2.453325798844354e-11   16   12   11   10
 1.484441861892851e-13   16   12   11   11
 2.2934443775463e-10   16   12   12    9
 -5.106805173115129e-07   16   12   12   10
 2.068927244238955e-08   16   12   12   11
 4.127065367139666e-11   16   12   12   12
 2.872499645525907e-09   16   12   13    9
 -6.71463860131106e-06   16   12   13   10
 2.720251447344627e-07   16   12   13   11
 4.618766516546625e-10   16   12   13   12
 5.010990794680988e-09   16   12   13   13
 1.578987807197631e-08   16   12   14    9
 -3.845720230143423e-05   16   12   14   10
 -2.217532126372763e-07   16   12   14   11
 1.805125240666828e-09   16   12   14   12
 1.811247494842171e-08   16   12   14   13
 8.49059480934784e-08   16   12   14   14
 -1.571860297696341e-05   16   12   15    9
 -9.749587769639406e-11   16   12   15   10
 3.808390062010685e-10   16   12   15   11
 2.966775775346945e-10   16   12   15   12
 1.828926706519672e-09   16   12   15   13
 -0.0006179117248723568   16   12   15   14
 1.098332497987135e-08   16   12   15   15
 0.0003395589032063551   16   12   16    9
 5.883067335412771e-09   16   12   16   10
 -8.422023857347951e-09   16   12   16   11
 0.0001775878705549859   16   12   16   12
 9.544234439952221e-09   16   13    9    9
 -1.286287496638629e-05   16   13   10    9
 -4.540689766347654e-10   16   13   10   10
 -7.415969863691606e-08   16   13   11    9
 3.226266462690948e-10   16   13   11   10
 1.826312497123034e-12   16   13   11   11
 2.872499645525907e-09   16   13   12    9
 -6.71463860131106e-06   16   13   12   10
 2.720251447344627e-07   16   13   12   11
 4.618766516546625e-10   16   13   12   12
 3.588837572735162e-08   16   13   13    9
 -8.82868447455083e-05   16   13   13   10
 3.57662066664861e-06   16   13   13   11
 5.010990794666102e-09   16   13   13   12
 5.192360395142164e-08   16   13   13   13
 1.959792582686019e-07   16   13   14    9
 -0.0005056511818320435   16   13   14   10
 -2.915253900608394e-06   16   13   14   11
 1.811247494821308e-08   16   13   14   12
 1.642289378450032e-07   16   13   14   13
 6.590894840117858e-07   16   13   14   14
 -0.000206670722347023   16   13   15    9
 -1.308287596839529e-09   16   13   15   10
 4.964685725197386e-09   16   13   15   11
 1.828926706522462e-09   16   13   15   12
 -3.193827594863304e-09   16   13   15   13
 -0.008124402831411279   16   13   15   14
 1.29229634942539e-07   16   13   15   15
 0.004464660883333193   16   13   16    9
 7.846089221765007e-08   16   13   16   10
 -1.107564871150855e-07   16   13   16   11
 0.002334998667472759   16   13   16   12
 0.03070152685594417   16   13   16   13
 5.241976818206864e-08   16   14    9    9
 -7.355218545092778e-05   16   14   10    9
 -2.620066336559809e-09   16   14   10   10
 2.979710277588725e-06   16   14   11    9
 1.850280358274946e-09   16   14   11   10
 -1.373659797034786e-10   16   14   11   11
 1.578987807200274e-08   16   14   12    9
 -3.845720230143423e-05   16   14   12   10
 -2.217532126372762e-07   16   14   12   11
 1.805125240680733e-09   16   14   12   12
 1.959792582686019e-07   16   14   13    9
 -0.0005056511818320435   16   14   13   10
 -2.915253900608393e-06   16   14   13   11
 1.811247494842992e-08   16   14   13   12
 1.642289378484726e-07   16   14   13   13
 1.022140343000884e-06   16   14   14    9
 -0.00289140255718345   16   14   14   10
 0.0001171349664041586   16   14   14   11
 8.490594809330897e-08   16   14   14   12
 6.59089484022646e-07   16   14   14   13
 -6.442073461395133e-07   16   14   14   14
 1.270502799660704e-09   16   14   15    9
 -6.004255086676119e-09   16   14   15   10
 7.635845238567429e-10   16   14   15   11
 -0.0006179117248723568   16   14   15   12
 -0.008124402831411279   16   14   15   13
 -1.847113949938686e-09   16   14   15   14
 -6.330841476144279e-07   16   14   15   15
 0.02557758666884964   16   14   16    9
 4.565906019170753e-07   16   14   16   10
 -6.346903197263657e-07   16   14   16   11
 0.01334836577465844   16   14   16   12
 0.1755098334134944   16   14   16   13
 1.005477925968938   16   14   16   14
 6.581418597780645e-11   16   15    9    9
 -9.236194390688868e-11   16   15   10    9
 -1.683726942843874e-07   16   15   10   10
 3.465447312132679e-11   16   15   11    9
 5.847594825425083e-09   16   15   11   10
 1.683531962459053e-07   16   15   11   11
 -1.571860297696341e-05   16   15   12    9
 -9.749587769639406e-11   16   15   12   10
 3.808390062010685e-10   16   15   12   11
 2.966775775346945e-10   16   15   12   12
 -0.000206670722347023   16   15   13    9
 -1.308287596839529e-09   16   15   13   10
 4.964685725197386e-09   16   15   13   11
 1.828926706522462e-09   16   15   13   12
 -3.193827594863304e-09   16   15   13   13
 1.270502799758124e-09   16   15   14    9
 -6.004255086682974e-09   16   15   14   10
 7.635845238521701e-10   16   15   14   11
 -0.0006179117248723568   16   15   14   12
 -0.008124402831411279   16   15   14   13
 -1.847113946505326e-09   16   15   14   14
 -9.967196686492082e-09   16   15   15    9
 -3.379742950258775e-07   16   15   15   10
 5.853410734608628e-05   16   15   15   11
 1.09833249799167e-08   16   15   15   12
 1.292296349427994e-07   16   15   15   13
 -6.330841476166899e-07   16   15   15   14
 0.02031815872756607   16   15   15   15
 -5.39104803537772e-08   16   15   16    9
 5.853748755822213e-05   16   15   16   10
 3.374922467322417e-07   16   15   16   11
 -1.796404955439085e-08   16   15   16   12
 -2.276412394699965e-07   16   15   16   13
 -1.303690515040409e-06   16   15   16   14
 0.0009405349202143661   16   15   16   15
 0.0006506487351316685   16   16    9    9
 9.017117657665143e-09   16   16   10    9
 7.280723919380804e-06   16   16   10   10
 -1.609992020599728e-08   16   16   11    9
 -1.263532869884869e-07   16   16   11   10
 6.091190207664482e-09   16   16   11   11
 0.0003395589032063551   16   16   12    9
 5.883067335407097e-09   16   16   12   10
 -8.422023857347855e-09   16   16   12   11
 0.0001775878705549859   16   16   12   12
 0.004464660883333193   16   16   13    9
 7.846089221765007e-08   16   16   13   10
 -1.107564871150855e-07   16   16   13   11
 0.002334998667472759   16   16   13   12
 0.03070152685594417   16   16   13   13
 0.02557758666884964   16   16   14    9
 4.565906019167826e-07   16   16   14   10
 -6.346903197263605e-07   16   16   14   11
 0.01334836577465844   16   16   14   12
 0.1755098334134943   16   16   14   13
 1.005477925968938   16   16   14   14
 -5.39104803538204e-08   16   16   15    9
 5.853748755822213e-05   16   16   15   10
 3.374922467322418e-07   16   16   15   11
 -1.796404955441372e-08   16   16   15   12
 -2.276412394702879e-07   16   16   15   13
 -1.303690515042143e-06   16   16   15   14
 0.000940534920214366   16   16   15   15
 8.773341567743934e-07   16   16   16    9
 -0.002529482142782398   16   16   16   10
 4.395260675980704e-05   16   16   16   11
 5.096028424740139e-08   16   16   16   12
 2.851270702234792e-07   16   16   16   13
 -9.900024319616419e-07   16   16   16   14
 -0.02031816623073681   16   16   16   15
 0.878798011665311   16   16   16   16
 2.396087798793388e-09   17    9    9    9
 -2.195835189619978e-06   17    9   10    9
 -6.865396916281608e-11   17    9   10   10
 1.770653394238687e-07   17    9   11    9
 5.519840389287208e-11   17    9   11   10
 -8.171048399079555e-12   17    9   11   11
 9.413726341660511e-10   17    9   12    9
 -1.149703177390209e-06   17    9   12   10
 -5.262529177992695e-08   17    9   12   11
 2.743336692345147e-10   17    9   12   12
 1.20074929644591e-08   17    9   13    9
 -1.511677189368996e-05   17    9   13   10
 -6.919024603539794e-07   17    9   13   11
 3.450872440524192e-09   17    9   13   12
 4.331995884221113e-08   17    9   13   13
 6.2831973801543e-08   17    9   14    9
 -8.632025606713977e-05   17    9   14   10
 6.960586278600469e-06   17    9   14   11
 2.117374103884053e-08   17    9   14   12
 2.638534338086799e-07   17    9   14   13
 1.237176279346999e-06   17    9   14   14
 3.059120266152861e-05   17    9   15    9
 -6.072145373626507e-11   17    9   15   10
 -7.795573306582456e-10   17    9   15   11
 -3.444252270801359e-05   17    9   15   12
 -0.0004528518010083807   17    9   15   13
 0.001202563451529194   17    9   15   14
 -8.358091154263749e-08   17    9   15   15